51
 energy: -107.239722533752 gnorm: 0.000770077719 xtb: 6.4.1 (afa7bdf)
C        -3.69027416607382    0.86660161222402   -1.72096661208612
C        -2.30324803367076    1.26891467366508   -2.12264002438837
C         1.86063001042306    1.55237549262407   -1.91717469113679
C         0.44466914971983    1.48756098745913   -2.03286711510420
C        -3.51158881734353   -0.63023010759920   -1.54309669169010
C        -3.88034163991859   -0.96491197959103   -0.23534324545287
C        -3.11239076976660   -1.88102001547690    0.47412317101900
C        -2.25173759816965   -1.04422548153575   -2.03002976251251
C        -1.46947397210199   -2.02945938230316   -1.35925585772815
C        -1.95752510780694   -2.46961015678237   -0.09663103267669
C         0.30670469065456   -2.75823334492995    0.70979921080207
C        -1.00444600994692   -2.56948809180101    0.98877995226398
C         2.03864795426132   -0.87821590478404   -2.28567087324176
C         0.62414446640058   -0.99502271192661   -2.33106046799669
C        -0.03579620659005   -2.06384076881945   -1.60832432587812
C         0.75978817323231   -2.76528701305088   -0.66335492577424
C        -0.13070438052313    0.23933344527435   -2.46208003130917
C        -1.53369709234256    0.14967586852577   -2.46742204278813
C         2.64049013892019    0.40311018900503   -2.18948235568341
C        -3.13519429111152    0.08053888900255    1.74695200706744
C        -3.93423952188382    0.28478946347192    0.57149478119675
C        -2.15105838775778    1.02423663835706    2.07370721193995
C        -1.40195720596974   -1.66241350471482    2.05332318726185
C        -2.71105793279594   -1.27928529885685    1.75428133117823
C        -0.86933459504778    0.61093545203260    2.58380431135919
C        -0.42365648304583   -0.73513488276583    2.53955282371995
C        -1.90791890028328    2.13065514708781    1.18160843149968
C        -2.57621351278255    2.20640531308178   -0.03793215676555
C        -3.68829005978940    1.33924630845526   -0.27862482037303
C        -0.50977661231551    2.46232304635988    1.24560668206779
C         0.25306529941445    2.74958719267404    0.09256024505603
C         1.66589183991070    2.68935703949274    0.23227319099377
C         1.44301869812970    1.38510084962948    2.27577355579755
C         0.07760845708947    1.63889151998754    2.26374019768309
C         2.25620943151707    2.12614840865719    1.40138460360503
C         1.34802758945241   -2.16486444939910    1.53842493202725
C         0.99747630333752   -1.02058119456579    2.33827871100664
C         1.94690906527719    0.02301838956641    2.33553975815917
C        -0.33972757820262    2.33877165755575   -1.17239207441699
C        -1.73853381588288    2.20392037845775   -1.23039248577942
C         2.47225575556954    2.28202298078041   -0.86141593279296
C         3.59098846909840    1.48342884341707   -0.35753475223660
C         3.46190463366078   -1.12950198465361    0.74262785203300
C         3.18231836948160   -0.01407925675846    1.56543650904906
C         3.38319246781789    1.29346445043524    1.01446034189597
C         2.52330420948302   -2.19967887555739    0.79505874490560
C         2.82417420648604   -1.73853310951109   -1.44272934009935
C         2.15666577365787   -2.57843303727348   -0.58340519109778
C         3.72751162085945    0.35386912023091   -1.19762312030646
C         3.76392600243745   -0.92160254093715   -0.65335842630106
H        -4.50588176865921    1.20299943467308   -2.35737873200152
52
 energy: -107.794240822992 gnorm: 0.000314189096 xtb: 6.4.1 (afa7bdf)
C        -3.68100190901669    0.86796063044787   -1.72534010301549
C        -2.29511002826258    1.27406882930414   -2.12811762923309
C         1.85945949904995    1.55348996830040   -1.90768438606061
C         0.45442044489300    1.49398157253462   -2.01666039926067
C        -3.50596413356172   -0.63048372939457   -1.54679086844938
C        -3.87546666078975   -0.96544125252585   -0.23729113641207
C        -3.11175465425354   -1.88428203669806    0.47239895015503
C        -2.24934063075023   -1.04363874707894   -2.02889871996552
C        -1.46800269827599   -2.03073173985693   -1.35700172595129
C        -1.95797808707682   -2.47246396887516   -0.09616323016820
C         0.31012383177290   -2.75947220170996    0.71197223448629
C        -0.99905583690012   -2.56641908510436    0.98947859245792
C         2.03209596427583   -0.87507169970391   -2.28195515499641
C         0.62439276177288   -0.99040272681514   -2.32207296797255
C        -0.03535355504895   -2.06760723841625   -1.60544244271960
C         0.76468992259732   -2.76483942529764   -0.66526708509919
C        -0.12358162223577    0.24502093174777   -2.44102081153582
C        -1.52828834027650    0.15791013482690   -2.45507366416439
C         2.61371693556812    0.42437941231060   -2.15509722483364
C        -3.12842282667410    0.08154577384642    1.74312217878547
C        -3.92285908642852    0.28582356204286    0.56634165824833
C        -2.14402872290236    1.02556362325973    2.06915557215031
C        -1.39729502552987   -1.66066354625243    2.05168752633154
C        -2.70597054867376   -1.27788234311196    1.75266993264903
C        -0.86674781888150    0.61185396719742    2.58798103633033
C        -0.41797636179764   -0.73180267177061    2.54116949629191
C        -1.89746675102993    2.12920204145202    1.17466224379734
C        -2.56640312447193    2.21122513609566   -0.04385062131285
C        -3.67380940315435    1.34007673096066   -0.28433907460987
C        -0.49821915971485    2.45774980343037    1.23898350692471
C         0.26478501242523    2.76244262415364    0.09080850803159
C         1.66664293781458    2.70677070940112    0.22752663781141
C         1.43986930269585    1.38592488358593    2.27220393554402
C         0.08130173508557    1.63865607789089    2.26437269372199
C         2.22709614032164    2.11329730282778    1.35237065915492
C         1.35085313886992   -2.15951320986725    1.53684485526525
C         0.99944548779995   -1.01715422228330    2.33604111149254
C         1.94988570007768    0.03207974075169    2.32148178735589
C        -0.34428854149461    2.37370937666365   -1.18638203741099
C        -1.72946051896018    2.22901618880771   -1.23970018196789
C         2.58688018315026    2.48533784358802   -0.94987657019992
C         3.61490626273276    1.51227765645236   -0.36992386855470
C         3.46260123426425   -1.12385014723872    0.73610901144290
C         3.18124185992595   -0.00711966708117    1.55037668373836
C         3.36988681242426    1.29693490466137    0.97594363372109
C         2.52687041205844   -2.19600693705060    0.79134532814611
C         2.82272395986944   -1.72213708794816   -1.44394528455643
C         2.15806542965626   -2.57302571671382   -0.58592082826834
C         3.72470853618193    0.37455139921798   -1.19152823672729
C         3.76506132434926   -0.90863611234584   -0.65854091044198
H        -4.49862451178922    1.20518913974941   -2.35871256911374
H         2.97044980149826    3.39271605034162   -1.41816420788237
53
 energy: -108.326034645164 gnorm: 0.000552789526 xtb: 6.4.1 (afa7bdf)
C        -3.69668433455146    0.90402470033434   -1.77027743768695
C        -2.36892564307227    1.40857222621988   -2.35848017102311
C         1.85507985128787    1.56455839636686   -1.93330449982771
C         0.47185266491657    1.51054173212492   -2.05333234396514
C        -3.48193807692886   -0.58379618162485   -1.55773349564218
C        -3.86219417931761   -0.93884432168677   -0.25907742455736
C        -3.10829441245662   -1.86520768599811    0.45635936600254
C        -2.20413184129744   -0.98787836737639   -2.00599824494986
C        -1.44692026781544   -2.01820422107329   -1.34865882068433
C        -1.94814761053260   -2.46501443689237   -0.10286746138976
C         0.31459323341692   -2.76782460716994    0.71486563403341
C        -0.99880729102339   -2.56747517988843    0.98681610349640
C         2.03451003333675   -0.87380476135645   -2.27773745523569
C         0.62462339648461   -0.98774304927749   -2.30475514244206
C        -0.02533596699449   -2.06700740502427   -1.59771499067856
C         0.77330631621589   -2.77676477183712   -0.65647444712660
C        -0.12895871503370    0.24740414510547   -2.44586789685764
C        -1.51595762185727    0.16160979733675   -2.46246301062327
C         2.62035689827159    0.41849714018965   -2.16889064105465
C        -3.13586881121916    0.09431328015964    1.72665137570669
C        -3.92148333922978    0.30702291052373    0.54613217570840
C        -2.14843049004718    1.02942569859949    2.06663994439298
C        -1.40225332524727   -1.65692657803816    2.04138063319551
C        -2.71383137978052   -1.26739072551639    1.73238241919576
C        -0.87231355890308    0.61107585324214    2.59885253834735
C        -0.42374142912176   -0.73441068545661    2.53887083358140
C        -1.89281555728199    2.12639259488108    1.17555236267943
C        -2.53608605895277    2.18467824764242   -0.07154818919970
C        -3.65437841696743    1.35127869022678   -0.31834100626421
C        -0.50563280619801    2.45376270715680    1.24534901896155
C         0.24942951640975    2.73455599849277    0.08571900051222
C         1.65542176597399    2.68989589142881    0.21921107363263
C         1.43342505022553    1.38117828910631    2.26966276201119
C         0.07544689518189    1.63515652272374    2.27501851282574
C         2.21950868298650    2.11083982488026    1.34616824251701
C         1.35188313321967   -2.16174669937715    1.53898172525245
C         0.99540214917723   -1.02045923365354    2.33649378781129
C         1.94505271109310    0.03054819500191    2.31976659514592
C        -0.35825762165163    2.36395429712659   -1.18769614099822
C        -1.72594203747010    2.22158653829895   -1.24719175540048
C         2.57790556263264    2.48479960536023   -0.95909244983362
C         3.60453122445865    1.51060764524842   -0.37847459672772
C         3.46325523905251   -1.12341508893545    0.73420366314069
C         3.17756802770050   -0.00506872139603    1.54727151469996
C         3.36346547931353    1.29706257997061    0.96936094807300
C         2.53166455245703   -2.19814254395233    0.79540017908305
C         2.82627372882593   -1.72782589120894   -1.44062796917589
C         2.16654149653375   -2.58057116691198   -0.58102303154957
C         3.71608193634129    0.37209227878018   -1.19784778716639
C         3.76701076971822   -0.91189417815512   -0.65919638854568
H        -4.59154770283621    1.17988257678896   -2.32453599936120
H         2.96222673482946    3.39982682033130   -1.41130593702678
H        -2.44927542492334    1.95467134074818   -3.30001269561226
54
 energy: -108.877058347030 gnorm: 0.000955513628 xtb: 6.4.1 (afa7bdf)
C        -3.73537511761547    0.89375902758762   -1.79573551282033
C        -2.38655276672220    1.39019394844812   -2.36196406452083
C         1.86161837771068    1.56047257847209   -1.93869561943089
C         0.47137503820235    1.50137966362779   -2.05799865464477
C        -3.66815259686006   -0.65986479135426   -1.71083347517753
C        -3.88189003819341   -0.94944326695623   -0.24937197125397
C        -3.12841328212727   -1.85636109981121    0.44346893328664
C        -2.20138875739682   -0.96308633658699   -1.97068864003125
C        -1.44839068715788   -2.00871784432952   -1.33695350487584
C        -1.95125896390977   -2.48224649420900   -0.10666363767325
C         0.31208200087571   -2.77650512580697    0.70622007682710
C        -1.00851763833673   -2.58216130339130    0.97558404684105
C         2.04002986982130   -0.86857842306452   -2.27975649414146
C         0.62461608931735   -0.97956379985383   -2.30424576974692
C        -0.02845816130605   -2.06025326906229   -1.59334812671686
C         0.76834955455483   -2.77111452341051   -0.65628761788068
C        -0.11642514458511    0.24658853591967   -2.42013427023203
C        -1.53355458009240    0.15300154019735   -2.38572583692663
C         2.62244767020072    0.41859278942525   -2.17105468056217
C        -3.13613146727239    0.08646870636625    1.73106452694888
C        -3.90069039110472    0.27847897957642    0.52515684442490
C        -2.15641674161839    1.02069087511668    2.06287422170676
C        -1.41061462987810   -1.66465188080546    2.02858745210346
C        -2.71814279787904   -1.27351848445788    1.72962689301587
C        -0.87902017974487    0.60245430601626    2.58739978833839
C        -0.43101638261796   -0.74039482089901    2.52720007246724
C        -1.90102682591302    2.11519649555424    1.16029235910890
C        -2.53882282767956    2.16202543292854   -0.08711211212550
C        -3.64721703882852    1.31137734584485   -0.34424967758998
C        -0.51676694269653    2.44874192610754    1.23299302037850
C         0.23663619310899    2.72261079432868    0.07018896115908
C         1.64900369697532    2.67526811102833    0.20734939931606
C         1.42085034261683    1.37356152626937    2.25906309336722
C         0.06659879607117    1.63085117528599    2.26488955554997
C         2.21039491691444    2.10431091271184    1.33311353583136
C         1.34991715740040   -2.16553623594543    1.53315343471319
C         0.99033364641642   -1.02440266081617    2.32689164271531
C         1.93630192064232    0.02959578868331    2.31468350720648
C        -0.36833885253422    2.36293278498039   -1.20105718048752
C        -1.73823456688072    2.21848303683023   -1.26314627419666
C         2.58018084425482    2.48253570198056   -0.96460855731909
C         3.61507020338475    1.51513824037634   -0.38102672700425
C         3.46520270578941   -1.11874929934728    0.73884117303139
C         3.17834943746211   -0.00158018996969    1.54612714258484
C         3.36357728724652    1.29760414817311    0.96713783580782
C         2.53242737557180   -2.19777844771282    0.79533666275985
C         2.82860783383236   -1.72178871845626   -1.43715122106967
C         2.16892283096369   -2.57082656485266   -0.57979545245415
C         3.72687145882317    0.37673257313942   -1.19532920736462
C         3.76998560309762   -0.90435763699440   -0.65439492767197
H        -4.60756833669751    1.27209255555178   -2.32585489421731
H         2.95779666971121    3.40205521185399   -1.41333828785591
H        -2.44939713842011    1.90364726415427   -3.32198515418420
H        -4.33461843069749   -1.18881507467260   -2.39378738470401
55
 energy: -109.408456651595 gnorm: 0.000944437579 xtb: 6.4.1 (afa7bdf)
C        -3.73739343648263    0.88709622704418   -1.78969620366476
C        -2.39568262406162    1.39349798753228   -2.36065836438893
C         1.84924400138197    1.56344679026846   -1.94371751387563
C         0.46027476751326    1.50904636992820   -2.06143862075921
C        -3.66773693609703   -0.66705644171416   -1.69763993566155
C        -4.12193481373460   -1.03108231953981   -0.24868455269769
C        -3.12336343222609   -1.87854681007330    0.46642428951628
C        -2.20629985998320   -0.95262529710605   -1.93024359806770
C        -1.45846674337157   -2.00505204085313   -1.33365161632713
C        -1.97733793894416   -2.45789568118206   -0.08322801130259
C         0.30653376365893   -2.77054910491161    0.71835086799581
C        -1.00450082484537   -2.56707675282382    0.99872443525056
C         2.02284860376121   -0.87081300020194   -2.28129247156617
C         0.60703352962510   -0.97918265415189   -2.29816140713055
C        -0.04566523468936   -2.05993491531340   -1.59143036110028
C         0.76167076836576   -2.77582622247767   -0.65535080727644
C        -0.13173494822441    0.24983262199768   -2.41969121764818
C        -1.54039892616079    0.15828430949968   -2.37988275102913
C         2.60702168043381    0.41729142929717   -2.17582405301677
C        -3.12723794454656    0.07544899787877    1.69470053107901
C        -3.90859107311885    0.26637768848255    0.51315584830802
C        -2.15201128293251    1.01391736555781    2.04561152672600
C        -1.39885854892527   -1.66951483239934    2.05532524062181
C        -2.71545685045298   -1.28245710915256    1.71577521382950
C        -0.87867097305670    0.60596465713073    2.59644833432761
C        -0.43010618617460   -0.74418721612019    2.54808168993257
C        -1.90184399664199    2.10988736821580    1.15675815474352
C        -2.54449537053133    2.15912328404377   -0.08727271885907
C        -3.63753477044234    1.29014793567010   -0.34290472605964
C        -0.51963008659992    2.44680681699642    1.23365686965934
C         0.23363560739121    2.72525270387098    0.07131541450582
C         1.64124203523741    2.67906950128730    0.20789472952590
C         1.42233080344991    1.37586703685604    2.26390163335877
C         0.06154585906149    1.62682313375720    2.26670672936527
C         2.20454856652674    2.10255930849919    1.33731268627958
C         1.34446615827412   -2.16587367283741    1.54005839807240
C         0.99033445369156   -1.02633669720719    2.34010434251540
C         1.93607746099663    0.02786430276238    2.31774257762143
C        -0.37629131710562    2.36963481754272   -1.20364230066476
C        -1.74637882535069    2.22376418043192   -1.26413565399618
C         2.56982999782235    2.48074882213614   -0.96639306965118
C         3.59575358978375    1.50557013925465   -0.38413654792875
C         3.45319269898127   -1.12741318467893    0.73193900354909
C         3.17073377113706   -0.00750345629155    1.54437938623819
C         3.35291414676804    1.29144207577584    0.96552127555116
C         2.52548330262735   -2.20238502730407    0.79403815926454
C         2.81406156369367   -1.72635350291237   -1.44565529607439
C         2.15281672356571   -2.57816109769653   -0.58444234240718
C         3.70979232656837    0.36995286147196   -1.20251076244420
C         3.75447298222017   -0.91307045016963   -0.66455046781861
H        -4.61713400072004    1.25754613954753   -2.31389793007052
H         2.95537460269079    3.39835701265531   -1.41246336294397
H        -2.45908746514736    1.90360500477281   -3.32281464399798
H        -4.28484682241266   -1.17350911837823   -2.44287262048387
H        -5.13978029071742   -1.42502928397873   -0.23315740068460
56
 energy: -109.961208562358 gnorm: 0.000481007928 xtb: 6.4.1 (afa7bdf)
C        -3.74808232301977    0.87608301995645   -1.78162320775371
C        -2.40800530948293    1.38604204218723   -2.35813608486591
C         1.84540167473770    1.55683290612591   -1.94227589871989
C         0.45378010948927    1.49967982882900   -2.05761496555120
C        -3.68043486561531   -0.68210132521698   -1.68018164441280
C        -4.14961770317424   -1.04690164027104   -0.24114913586126
C        -3.28229323374225   -2.06512571208335    0.52867023495826
C        -2.21785018936880   -0.94742284977458   -1.90474454246409
C        -1.45668129146892   -1.98814811415706   -1.28517666496115
C        -1.95634368659629   -2.45777992834577   -0.07883576071807
C         0.30844612115838   -2.78816878481729    0.71961788669172
C        -1.01200726418617   -2.58934164172147    0.99101839886815
C         2.02344349757642   -0.87366188439558   -2.27793572358402
C         0.60750622221385   -0.98159913017307   -2.28981745027089
C        -0.03839569806152   -2.05693626759888   -1.56984882502314
C         0.76002879946651   -2.77269575648847   -0.64365652679456
C        -0.13538464460112    0.24349556843589   -2.40334835857540
C        -1.55385058598039    0.15047015853240   -2.35877637385740
C         2.60513506223467    0.41393576515891   -2.17410999188549
C        -3.10425550099316    0.04719089149645    1.67872474514809
C        -3.88462186922505    0.23843131803791    0.50699546436970
C        -2.14476240501262    1.00152929119493    2.04160742893015
C        -1.41530123985237   -1.67241095930514    2.03965623402156
C        -2.72316977558474   -1.30130639051392    1.73199092172213
C        -0.87631949742597    0.59557553971870    2.58402135051364
C        -0.43267680563956   -0.74765587896555    2.53216714349702
C        -1.90240482524002    2.10268690422855    1.15687934703206
C        -2.54784858471151    2.15138354905500   -0.08405507000565
C        -3.63445273772297    1.27561292148482   -0.33829487438526
C        -0.52180623857955    2.44612526892823    1.23441544373411
C         0.22799936536370    2.72393327954783    0.06920517619565
C         1.63616781878451    2.67276055903687    0.20391170266488
C         1.41921632314283    1.37081155348613    2.25784685181000
C         0.06244073956267    1.62614432258738    2.26418720478123
C         2.20207818022391    2.10037791789244    1.33190129048585
C         1.34986313050480   -2.17696967616739    1.54384225720459
C         0.98937128042590   -1.03185186296939    2.33180619845992
C         1.93364089518314    0.02490668479919    2.31396528789523
C        -0.38551358518446    2.36630853307418   -1.20368641587941
C        -1.75528184530671    2.22308454450442   -1.26566197611272
C         2.56603554305459    2.47806096842789   -0.96900640671383
C         3.59899629474020    1.50904796038166   -0.38623181975743
C         3.45887512343232   -1.12417903663017    0.73787332133001
C         3.17411967203700   -0.00634279785430    1.54464298641971
C         3.35368624316409    1.29246403165783    0.96274154439680
C         2.52951422135446   -2.20527163827510    0.80006659525431
C         2.81453953761862   -1.72571473679159   -1.43575135698227
C         2.16089801279934   -2.57667017554309   -0.57416031090769
C         3.71180947796646    0.37176001761702   -1.20076156749563
C         3.75654309357277   -0.90903568927461   -0.65801012942774
H        -4.63167651637771    1.24437926617692   -2.30048004294659
H         2.94565737367949    3.39701679443489   -1.41742147297422
H        -2.47079707724814    1.88899868738480   -3.32377021541554
H        -4.28517330212741   -1.18977385302431   -2.43632863660079
H        -5.19922059706761   -1.34868961308797   -0.24897175576292
H        -3.84881115771033   -2.95913518607373    0.80335534305188
57
 energy: -110.486444387395 gnorm: 0.000504415262 xtb: 6.4.1 (afa7bdf)
C        -3.73620984725376    0.87422042975060   -1.78117241805041
C        -2.39634148043709    1.38280583202065   -2.35841170952575
C         1.84140590538295    1.57524598386583   -1.95595687834643
C         0.46453794940150    1.51210406242141   -2.07253445513141
C        -3.67085718129180   -0.68355186037468   -1.67992327324055
C        -4.14239884864313   -1.04672795742045   -0.24121301795531
C        -3.27972722261356   -2.06654099225438    0.53096821018699
C        -2.20955372444907   -0.95379228379037   -1.90505303103149
C        -1.45531316942146   -1.99409496283802   -1.28479867114495
C        -1.95405526931147   -2.46599609967945   -0.07392378332489
C         0.31409829345437   -2.79466001763095    0.72398986823116
C        -1.01419171151892   -2.59730366020539    0.99208569877848
C         2.03399561801640   -0.87804817034292   -2.24130548587705
C         0.60858160667811   -0.97948192192980   -2.26631009430508
C        -0.03666792978522   -2.05872650694136   -1.56179312235510
C         0.76619408442444   -2.77566344836247   -0.63954633847523
C        -0.12995419700974    0.23778107036939   -2.40656151961480
C        -1.54201654760660    0.14579683203574   -2.36386820122577
C         2.61058279025566    0.41357152149872   -2.13602719593204
C        -3.09681544603292    0.04399035066443    1.68036906996851
C        -3.87578371130495    0.23763272206809    0.50770534947735
C        -2.13459813079371    0.99649737853043    2.04567274552409
C        -1.41494164328526   -1.68101459626254    2.04181748983070
C        -2.72397780385622   -1.30553008350378    1.73726193386147
C        -0.86951139950347    0.58649310585258    2.58201349121578
C        -0.43188816015518   -0.75871916857866    2.53572500618694
C        -1.88606620721018    2.09885684174848    1.15532424781222
C        -2.53340470473653    2.14666296742450   -0.08510951201947
C        -3.62234347827298    1.27349046991535   -0.33786023817437
C        -0.51083313876200    2.44149601238902    1.23244060455133
C         0.24437492638339    2.72560802410350    0.06364388903984
C         1.64570355138731    2.67737912986150    0.19682977042966
C         1.42787133306765    1.35512781823358    2.24442761818245
C         0.07386040198162    1.61608063198091    2.25590527222320
C         2.22118961111010    2.08567768837866    1.32007671401561
C         1.34141732078409   -2.19269500097660    1.55542688983896
C         0.98900375680033   -1.04946738998274    2.33265031553459
C         1.93496597456269    0.01260360328440    2.30993303597842
C        -0.37290828916230    2.36714162496899   -1.20807014193737
C        -1.74300802476602    2.21836083888700   -1.26651478900879
C         2.57033031724974    2.48309326475683   -0.98013701100637
C         3.60569695574179    1.50384575839477   -0.40811575271028
C         3.43039145481258   -1.12333826298693    0.73037224988036
C         3.16094512380274   -0.01748300232846    1.52100648524735
C         3.37424839241165    1.30109556204574    0.96147386859032
C         2.52616188610832   -2.19176122088735    0.78700091527278
C         2.83305805573851   -1.74138520946636   -1.45092213236411
C         2.16756128424913   -2.57106740369412   -0.57870297586669
C         3.71823343705799    0.39186953415617   -1.22323758359298
C         3.94821655536947   -0.99421892226729   -0.71985525711419
H        -4.61973024983455    1.24334191853969   -2.29986980137602
H         2.96028505787063    3.40197341733269   -1.41945150173840
H        -2.45970721297637    1.88596079521116   -3.32405947509486
H        -4.27712569902004   -1.18972690178845   -2.43614637905157
H        -5.19293851134320   -1.34590280692988   -0.25086044390499
H        -3.84976148685271   -2.95903078171856    0.80343964662316
H         4.95777802918720   -1.38694131006885   -0.84656891396498
58
 energy: -111.038771439249 gnorm: 0.000461549489 xtb: 6.4.1 (afa7bdf)
C        -3.73803110881779    0.87428194070761   -1.77924013655009
C        -2.39895407929545    1.38674447313846   -2.35522776668237
C         1.85425367797130    1.55261057985906   -1.90541427251132
C         0.46250660271403    1.50421556473644   -2.03554203084694
C        -3.66833855108800   -0.68399859989035   -1.68044301272694
C        -4.13729674913473   -1.05100994209930   -0.24244057130161
C        -3.27085362221194   -2.07025633439715    0.52666039024330
C        -2.20564690588217   -0.94848562045409   -1.90376220062064
C        -1.44815279012050   -1.99491039329268   -1.28929453192723
C        -1.94529792610376   -2.46618932869751   -0.08038793262488
C         0.32390076642828   -2.79913111427885    0.71448338757300
C        -1.00168215390152   -2.59810169938194    0.98470114020831
C         2.03727564231131   -0.85012366060387   -2.21056203779244
C         0.61414561338141   -0.96734514401959   -2.25242579523687
C        -0.02977367414480   -2.05682819768196   -1.56611906768327
C         0.77627520073892   -2.77882302612396   -0.64967742732147
C        -0.12564529563797    0.24923534678187   -2.38063962415676
C        -1.54400701832114    0.15222281402177   -2.35417330099404
C         2.62052983241679    0.42208243986347   -2.12508825125010
C        -3.09108191056572    0.03929855808067    1.67823717905515
C        -3.87244333320486    0.23305894074986    0.50802493007357
C        -2.12917923520752    0.99580914081896    2.04003000032978
C        -1.40415860934622   -1.68030187546911    2.03296591113532
C        -2.71448382806345   -1.30815012564610    1.73211576545461
C        -0.86309628611648    0.58950528232717    2.57418309101252
C        -0.42279363805503   -0.75457167594914    2.52377088253245
C        -1.88820378331174    2.09927946827761    1.15512653783227
C        -2.53935998534721    2.15104548907848   -0.08236663040883
C        -3.62403681585782    1.27224129592052   -0.33545525675677
C        -0.50992714682358    2.45140946715666    1.23123810013090
C         0.23669150087951    2.75607402554304    0.06464868638763
C         1.64259037980234    2.71073942094915    0.18910063803623
C         1.43108442892071    1.36426298038472    2.22468893832511
C         0.07632267340490    1.62489448587954    2.24892605606989
C         2.20437845622047    2.09735893685151    1.29755454364763
C         1.35445737049469   -2.18686955537320    1.54081248843036
C         0.99711839697758   -1.04522625189046    2.31702382051808
C         1.94322860040674    0.01767943563423    2.28653029640902
C        -0.38060286678280    2.38392051265852   -1.20419575947322
C        -1.74993675223418    2.23073715497316   -1.26538123044876
C         2.58054085904553    2.50097099579733   -0.98008048102090
C         3.61360248563780    1.51796203262533   -0.41426105469203
C         3.43623484639300   -1.11394101916366    0.70372205763512
C         3.15739665714440   -0.02385344683874    1.49995981327904
C         3.33816909134012    1.28502125844209    0.88955410473245
C         2.53526819185423   -2.19192515077095    0.77668746439473
C         2.84267616528313   -1.72625271888259   -1.44504218516008
C         2.17743577118346   -2.57293919836508   -0.58975973220432
C         3.94405418754003    0.41786368552857   -1.37058816176483
C         3.97800043372256   -0.99745170269198   -0.72855596241888
H        -4.62252626770604    1.24167992444171   -2.29753291045079
H         2.95848232070544    3.40803262371413   -1.45286861703003
H        -2.46240099835895    1.88653220459431   -3.32281755395730
H        -4.27212755680175   -1.19113725346785   -2.43786992176615
H        -5.18718226123959   -1.35262125642583   -0.25117912751111
H        -3.83857390364059   -2.96420431846389    0.79946168336865
H         4.95554244795121   -1.47076588790594   -0.82959071843654
H         4.82104812369343    0.59850726972983   -1.99553312887762
59
 energy: -111.565343382134 gnorm: 0.000542265422 xtb: 6.4.1 (afa7bdf)
C        -3.72724775252202    0.87815624837303   -1.78231128087741